<?xml version="1.0"?>
<VTKFile type="ImageData" version="0.1" byte_order="LittleEndian" header_type="UInt32" compressor="vtkZLibDataCompressor">
  <ImageData WholeExtent="0 1 0 1 0 1" Origin="0 0 0" Spacing="1 1 1" Direction="1 0 0 0 1 0 0 0 1">
  <Piece Extent="0 1 0 1 0 1">
    <PointData Scalars="Scalars">
      <DataArray type="Float64" Name="Scalars" format="ascii" RangeMin="0" RangeMax="0.7000000000000001">
        0 0.1 0.2 0.30000000000000004 0.4 0.5
        0.6000000000000001 0.7000000000000001
      </DataArray>
    </PointData>
    <CellData>
    </CellData>
  </Piece>
  </ImageData>
</VTKFile>