<?xml version="1.0"?>
<VTKFile type="ImageData" version="2.3" byte_order="LittleEndian" header_type="UInt32" compressor="vtkZLibDataCompressor">
  <ImageData WholeExtent="0 2 0 2 0 1" Origin="0 0 0" Spacing="1 1 1" Direction="1 0 0 0 1 0 0 0 1">
  <Piece Extent="0 2 0 2 0 1">
    <PointData>
      <DataArray type="Float64" Name="point_data" format="ascii" RangeMin="0" RangeMax="1">
        0 0.058823529411764705 0.11764705882352941 0.1764705882352941 0.23529411764705882 0.29411764705882354
        0.3529411764705882 0.4117647058823529 0.47058823529411764 0.5294117647058824 0.5882352941176471 0.6470588235294118
        0.7058823529411764 0.7647058823529411 0.8235294117647058 0.8823529411764706 0.9411764705882353 1
      </DataArray>
    </PointData>
    <CellData>
      <DataArray type="Float64" Name="cell_data" format="ascii" RangeMin="0" RangeMax="1">
        0 0.3333333333333333 0.6666666666666666 1
      </DataArray>
      <DataArray type="UInt8" Name="vtkGhostType" format="ascii" RangeMin="0" RangeMax="32">
        0 0 32 0
      </DataArray>
    </CellData>
  </Piece>
  </ImageData>
</VTKFile>